# vtk DataFile Version 4.0
vtk output
ASCII
DATASET POLYDATA
POINTS 49411 float
3.01367 199.073 -178 3.01367 198.932 -177.834 3.07224 198.932 -178 
2.93183 198.932 -178 8.61914 198.758 -178 8.61914 198.249 -177 
8.73126 198.131 -177 9.13288 198.131 -178 7.81836 198.641 -178 
7.81836 198.639 -177 7.01758 198.671 -178 7.01758 198.888 -177 
6.46572 198.131 -178 6.2168 198.131 -177.428 6.2168 198.374 -177 
5.87383 198.131 -177 3.81445 198.131 -177.167 3.81445 198.187 -177 
3.94782 198.131 -177 3.01367 198.444 -177 3.59056 198.131 -178 
2.21289 198.131 -177.948 2.81074 198.131 -177 2.21289 198.176 -178 
2.1891 198.131 -178 9.09804 197.33 -178 9.04549 197.33 -177 
6.2168 197.971 -178 5.41602 197.971 -177 5.41602 197.73 -178 
4.61523 197.73 -178 4.61523 197.971 -177 3.81445 197.971 -178 
2.21289 197.33 -177.287 2.3411 197.33 -177 1.97277 197.33 -178 
9.1798 196.529 -178 9.3064 196.529 -177 2.21289 197.143 -177 
1.89616 196.529 -177 1.7529 196.529 -178 9.41992 196.198 -178 
9.41992 196.381 -177 9.97107 195.729 -177 9.82031 195.729 -178 
1.55314 195.729 -178 1.69473 195.729 -177 10.2207 195.259 -178 
10.2207 195.417 -177 10.5374 194.928 -177 10.4608 194.928 -178 
1.51157 194.928 -178 1.49421 194.928 -177 10.7814 194.127 -178 
10.8856 194.127 -177 1.41211 194.778 -177 1.41211 194.711 -178 
1.17199 194.127 -178 1.09538 194.127 -177 11.0215 193.727 -178 
11.0215 193.9 -177 11.3382 193.326 -177 11.2616 193.326 -178 
0.85145 193.326 -178 0.747236 193.326 -177 11.4219 192.525 -178 
11.5396 192.525 -177 0.611328 193.086 -177 0.611328 192.926 -178 
0.371206 192.525 -178 0.328712 192.525 -177 11.4219 191.725 -178 
11.5995 191.725 -177 0.210938 191.725 -178 0.176532 191.725 -177 
11.4219 190.924 -178 11.6415 190.924 -177 0.210938 190.924 -178 
0.0931625 190.924 -177 11.8223 190.123 -177.104 11.8223 190.24 -177 
11.8659 190.123 -177 11.5821 190.123 -178 0.210938 190.123 -178 
0.0506691 190.123 -177 11.8223 189.385 -178 11.8461 189.322 -178 
12.1145 189.322 -177 0.210938 189.322 -178 0.0506691 189.322 -177 
11.8223 188.521 -177.016 11.8223 189.26 -178 11.8279 188.521 -177 
11.5821 188.521 -178 0.210938 188.521 -178 0.0506691 188.521 -177 
11.8223 188.508 -177 11.5995 187.721 -177 11.4219 187.721 -178 
0.210938 187.721 -178 0.0931625 187.721 -177 11.4219 186.92 -178 
11.5821 186.92 -177 0.371206 186.92 -178 0.294599 186.92 -177 
11.4219 186.119 -178 11.5821 186.119 -177 0.611328 186.52 -178 
0.693427 186.119 -177 0.611328 186.269 -177 0.85145 186.119 -178 
11.2616 185.318 -178 11.4651 185.318 -177 1.01172 185.318 -178 
0.85145 185.318 -177 11.0215 184.643 -177 11.0215 184.987 -178 
10.6211 184.518 -178 10.9141 184.518 -177 1.2526 184.518 -178 
1.05806 184.518 -177 10.2207 183.792 -177 10.2207 184.117 -178 
9.75093 183.717 -178 10.1324 183.717 -177 2.21289 183.957 -178 
2.61328 183.717 -178 2.21289 183.717 -177.104 2.14327 183.717 -177 
1.41211 184.117 -177 1.41211 184.358 -178 9.41992 183.2 -177 
9.41992 183.477 -178 8.61914 182.916 -177.104 8.71062 182.916 -177 
8.61914 183.156 -178 8.21875 182.916 -178 5.41602 183.156 -178 
5.81641 182.916 -178 5.41602 182.916 -177.104 5.28265 182.916 -177 
4.61523 183.076 -177 4.61523 183.316 -178 3.81445 183.316 -178 
3.81445 183.076 -177 3.01367 183.477 -178 3.01367 183.2 -177 
2.21289 183.663 -177 8.61914 182.867 -177 7.81836 182.676 -178 
7.81836 182.457 -177 7.01758 182.516 -178 7.01758 182.355 -177 
6.2168 182.676 -178 6.2168 182.472 -177 5.41602 182.872 -177 
8.61914 198.131 -176.811 8.09823 198.131 -176 7.81836 198.359 -176 
7.01758 198.768 -176 6.2168 198.867 -176 5.41602 198.131 -176.633 
5.41602 198.888 -176 4.61523 198.131 -176.633 4.61523 198.689 -176 
3.81445 198.384 -176 3.01367 198.131 -176.69 3.56594 198.131 -176 
8.61914 197.638 -176 8.86191 197.33 -176 3.01367 197.671 -176 
2.75059 197.33 -176 9.41992 196.529 -176.278 9.41992 196.59 -176 
9.47293 196.529 -176 2.21289 196.612 -176 2.156 196.529 -176 
10.1712 195.729 -176 1.85249 195.729 -176 10.2207 195.664 -176 
10.6681 194.928 -176 1.42908 194.928 -176 11.0215 194.127 -176.5 
11.0215 194.342 -176 11.1574 194.127 -176 1.41211 194.902 -176 
1.00466 194.127 -176 11.5055 193.326 -176 0.611328 193.347 -176 
0.611328 193.326 -176.078 0.598812 193.326 -176 11.8223 192.525 -176.199 
11.8223 192.675 -176 11.9044 192.525 -176 0.28202 192.525 -176 
11.8223 191.725 -176.594 12.1795 191.725 -176 0.0931625 191.725 -176 
11.8223 190.924 -176.747 12.5795 190.924 -176 -0.189453 191.083 -176 
-0.189453 190.924 -176.199 -0.271552 190.924 -176 12.623 190.123 -176.253 
12.623 190.807 -176 12.8039 190.123 -176 -0.189453 190.123 -176.5 
-0.429575 190.123 -176 12.623 189.322 -176.328 12.8273 189.322 -176 
-0.189453 189.322 -176.5 -0.429575 189.322 -176 12.623 188.521 -176.083 
12.682 188.521 -176 -0.189453 188.521 -176.5 -0.429575 188.521 -176 
12.623 188.379 -176 11.8223 187.721 -176.645 12.3308 187.721 -176 
-0.189453 187.721 -176.3 -0.325361 187.721 -176 11.8223 186.92 -176.587 
12.2227 186.92 -176 -0.0209604 186.92 -176 -0.189453 187.355 -176 
11.8223 186.119 -176.587 12.2227 186.119 -176 0.611328 186.119 -176.844 
0.167741 186.119 -176 11.8223 185.318 -176.5 12.208 185.318 -176 
0.611328 185.318 -176.587 0.210938 185.318 -176 11.8223 184.518 -176.189 
11.998 184.518 -176 11.0215 184.518 -176.881 0.611328 184.518 -176.325 
0.382954 184.518 -176 11.8223 184.253 -176 11.4498 183.717 -176 
11.0215 183.717 -176.389 10.2207 183.717 -176.924 1.41211 183.717 -176.558 
0.871676 183.717 -176 0.611328 184.117 -176 11.0215 182.916 -176.226 
11.2164 182.916 -176 10.2207 182.916 -176.558 9.41992 182.916 -176.713 
4.61523 182.916 -176.801 3.81445 182.916 -176.801 3.01367 182.916 -176.713 
2.21289 182.916 -176.558 1.41211 182.916 -176.3 1.0811 182.916 -176 
11.0215 182.232 -176 10.9382 182.115 -176 10.2207 182.115 -176.3 
9.41992 182.115 -176.353 8.61914 182.115 -176.468 7.81836 182.115 -176.541 
7.01758 182.115 -176.524 6.2168 182.115 -176.406 5.41602 182.115 -176.279 
4.61523 182.115 -176.334 3.81445 182.115 -176.457 3.01367 182.115 -176.457 
2.21289 182.115 -176.353 1.41211 182.115 -176.071 1.3332 182.115 -176 
10.2207 181.784 -176 9.41992 181.641 -176 8.61914 181.387 -176 
7.81836 181.654 -176 7.01758 181.841 -176 6.2168 181.892 -176 
5.41602 181.899 -176 4.61523 181.722 -176 3.9337 181.314 -176 
3.81445 181.314 -176.074 3.01367 181.314 -176.142 2.69013 181.314 -176 
2.21289 181.585 -176 1.41211 182.032 -176 3.81445 181.25 -176 
3.01367 181.166 -176 7.81836 198.131 -175.703 7.01758 198.131 -175.393 
6.2168 198.131 -175.431 5.41602 198.131 -175.5 4.61523 198.131 -175.5 
3.81445 198.131 -175.747 8.61914 197.33 -175.578 8.10037 197.33 -175 
7.81836 197.544 -175 7.01758 197.73 -175 6.2168 197.73 -175 
5.41602 197.75 -175 4.61523 197.786 -175 3.81445 197.59 -175 
3.01367 197.33 -175.578 3.50536 197.33 -175 9.41992 196.529 -175.879 
9.01953 196.529 -175 8.61914 196.93 -175 3.01367 196.889 -175 
2.21289 196.529 -175.896 2.73076 196.529 -175 9.41992 196.145 -175 
9.85778 195.729 -175 2.21289 195.729 -175.174 2.30155 195.729 -175 
10.2207 195.389 -175 10.6076 194.928 -175 2.21289 195.616 -175 
1.66174 194.928 -175 11.0215 194.33 -175 11.1574 194.127 -175 
1.41211 194.616 -175 1.09538 194.127 -175 11.5483 193.326 -175 
0.611328 193.326 -175.922 0.747236 193.326 -175 11.8223 192.907 -175 
12.0624 192.525 -175 0.611328 193.086 -175 0.328712 192.525 -175 
12.3829 191.725 -175 0.0931625 191.725 -175 12.623 190.924 -175.896 
12.623 191.324 -175 12.8632 190.924 -175 -0.189453 191.083 -175 
-0.271552 190.924 -175 12.989 190.123 -175 -0.472069 190.123 -175 
12.9057 189.322 -175 -0.555438 189.322 -175 12.8632 188.521 -175 
-0.589844 188.521 -175 12.623 187.721 -175.539 12.897 187.721 -175 
-0.555438 187.721 -175 12.623 186.92 -175.482 12.9802 186.92 -175 
-0.189453 186.92 -175.662 -0.472069 186.92 -175 12.623 186.119 -175.482 
12.9802 186.119 -175 -0.189453 186.119 -175.431 -0.429575 186.119 -175 
12.623 185.318 -175.437 12.897 185.318 -175 -0.189453 185.318 -175.437 
-0.463379 185.318 -175 12.623 184.518 -175.185 12.7366 184.518 -175 
-0.189453 184.518 -175.257 -0.378316 184.518 -175 12.623 184.319 -175 
11.8223 183.717 -175.547 12.2227 183.717 -175 0.611328 183.717 -175.715 
0.038921 183.717 -175 -0.189453 184.146 -175 11.8223 183.115 -175 
11.7087 182.916 -175 0.611328 182.916 -175.5 0.210938 182.916 -175 
11.0215 182.115 -175.946 11.5395 182.115 -175 0.611328 182.115 -175.285 
0.382954 182.115 -175 11.0215 181.314 -175.177 11.1765 181.314 -175 
10.2207 181.314 -175.437 9.41992 181.314 -175.646 8.61914 181.314 -175.933 
7.81836 181.314 -175.5 7.28183 181.314 -175 7.01758 181.45 -175 
6.2168 181.555 -175 5.41602 181.428 -175 4.61523 181.314 -175.477 
5.18804 181.314 -175 2.21289 181.314 -175.79 1.41211 181.314 -175.353 
1.0527 181.314 -175 0.611328 181.806 -175 11.0215 181.179 -175 
10.2207 181.041 -175 9.41992 180.914 -175 8.61914 180.685 -175 
7.81836 181.013 -175 4.61523 181.013 -175 3.81445 180.682 -175 
3.01367 180.514 -175.219 3.379 180.514 -175 2.21289 180.514 -175.153 
2.01426 180.514 -175 1.41211 180.971 -175 3.01367 180.367 -175 
2.21289 180.378 -175 7.81836 197.33 -174.764 7.01758 197.33 -174.658 
6.2168 197.33 -174.7 5.41602 197.33 -174.658 4.61523 197.33 -174.554 
3.81445 197.33 -174.715 8.61914 196.529 -174.52 7.81836 196.529 -174.021 
7.01758 196.529 -174.17 6.2168 196.529 -174.3 5.41602 196.529 -174.17 
5.05068 196.529 -174 4.61523 196.75 -174 3.81445 196.735 -174 
3.01367 196.529 -174.571 3.54716 196.529 -174 9.41992 195.729 -174.397 
8.99417 195.729 -174 8.61914 196.022 -174 7.81836 196.5 -174 
7.01758 196.302 -174 6.2168 196.184 -174 5.41602 196.336 -174 
3.01367 196.091 -174 2.68695 195.729 -174 10.2207 194.928 -174.011 
10.2128 194.928 -174 9.41992 195.452 -174 2.21289 195.282 -174 
1.87125 194.928 -174 11.0215 194.127 -174.67 10.6948 194.127 -174 
10.2207 194.92 -174 1.41211 194.32 -174 1.2762 194.127 -174 
11.0215 193.727 -174 11.3482 193.326 -174 0.885254 193.326 -174 
11.8223 192.821 -174 12.045 192.525 -174 0.611328 192.907 -174 
[...]
POINT_DATA 49411
SCALARS scalars unsigned_short
LOOKUP_TABLE default
255 255 255 255 255 255 255 255 255 
255 255 255 255 255 255 255 255 255 
255 255 255 255 255 255 255 255 255 
255 255 255 255 255 255 255 255 255 
255 255 255 255 255 255 255 255 255 
255 255 255 255 255 255 255 255 255 
255 255 255 255 255 255 255 255 255 
255 255 255 255 255 255 255 255 255 
255 255 255 255 255 255 255 255 255 
255 255 255 255 255 255 255 255 255 
255 255 255 255 255 255 255 255 255 
255 255 255 255 255 255 255 255 255 
255 255 255 255 255 255 255 255 255 
255 255 255 255 255 255 255 255 255 
255 255 255 255 255 255 255 255 255 
255 255 255 255 255 255 255 255 255 
255 255 255 255 255 255 255 255 255 
255 255 255 255 255 255 255 255 255 
255 255 255 255 255 255 255 255 255 
255 255 255 255 255 255 255 255 255 
255 255 255 255 255 255 255 255 255 
255 255 255 255 255 255 255 255 255 
255 255 255 255 255 255 255 255 255 
255 255 255 255 255 255 255 255 255 
255 255 255 255 255 255 255 255 255 
255 255 255 255 255 255 255 255 255 
255 255 255 255 255 255 255 255 255 
255 255 255 255 255 255 255 255 255 
255 255 255 255 255 255 255 255 255 
255 255 255 255 255 255 255 255 255 
255 255 255 255 255 255 255 255 255 
255 255 255 255 255 255 255 255 255 
255 255 255 255 255 255 255 255 255 
255 255 255 255 255 255 255 255 255 
255 255 255 255 255 255 255 255 255 
255 255 255 255 255 255 255 255 255 
255 255 255 255 255 255 255 255 255 
255 255 255 255 255 255 255 255 255 
255 255 255 255 255 255 255 255 255 
255 255 255 255 255 255 255 255 255 
255 255 255 255 255 255 255 255 255 
255 255 255 255 255 255 255 255 255 
255 255 255 255 255 255 255 255 255 
255 255 255 255 255 255 255 255 255 
255 255 255 255 255 255 255 255 255 
255 255 255 255 255 255 255 255 255 
255 255 255 255 255 255 255 255 255 
255 255 255 255 255 255 255 255 255 
255 255 255 255 255 255 255 255 255 
255 255 255 255 255 255 255 255 255 
255 255 255 255 255 255 255 255 255 
255 255 255 255 255 255 255 255 255 
255 255 255 255 255 255 255 255 255 
255 255 255 255 255 255 255 255 255 
255 255 255 255 255 255 255 255 255 
255 255 255 255 255 255 255 255 255 
255 255 255 255 255 255 255 255 255 
255 255 255 255 255 255 255 255 255 
255 255 255 255 255 255 255 255 255 
255 255 255 255 255 255 255 255 255 
255 255 255 255 255 255 255 255 255 
255 255 255 255 255 255 255 255 255 
255 255 255 255 255 255 255 255 255 
255 255 255 255 255 255 255 255 255 
255 255 255 255 255 255 255 255 255 
255 255 255 255 255 255 255 255 255 
255 255 255 255 255 255 255 255 255 
255 255 255 255 255 255 255 255 255 
255 255 255 255 255 255 255 255 255 
255 255 255 255 255 255 255 255 255 
255 255 255 255 255 255 255 255 255 
255 255 255 255 255 255 255 255 255 
255 255 255 255 255 255 255 255 255 
255 255 255 255 255 255 255 255 255 
255 255 255 255 255 255 255 255 255 
255 255 255 255 255 255 255 255 255 
255 255 255 255 255 255 255 255 255 
255 255 255 255 255 255 255 255 255 
255 255 255 255 255 255 255 255 255 
255 255 255 255 255 255 255 255 255 
255 255 255 255 255 255 255 255 255 
255 255 255 255 255 255 255 255 255 
255 255 255 255 255 255 255 255 255 
255 255 255 255 255 255 255 255 255 
255 255 255 255 255 255 255 255 255 
255 255 255 255 255 255 255 255 255 
255 255 255 255 255 255 255 255 255 
255 255 255 255 255 255 255 255 255 
255 255 255 255 255 255 255 255 255 
255 255 255 255 255 255 255 255 255 
255 255 255 255 255 255 255 255 255 
255 255 255 255 255 255 255 255 255 
255 255 255 255 255 255 255 255 255 
255 255 255 255 255 255 255 255 255 
255 255 255 255 255 255 255 255 255 
255 255 255 255 255 255 255 255 255 
255 255 255 255 255 255 255 255 255 
255 255 255 255 255 255 255 255 255 
255 255 255 255 255 255 255 255 255 
255 255 255 255 255 255 255 255 255 
255 255 255 255 255 255 255 255 255 
255 255 255 255 255 255 255 255 255 
255 255 255 255 255 255 255 255 255 
255 255 255 255 255 255 255 255 255 
255 255 255 255 255 255 255 255 255 
255 255 255 255 255 255 255 255 255 
255 255 255 255 255 255 255 255 255 
255 255 255 255 255 255 255 255 255 
255 255 255 255 255 255 255 255 255 
255 255 255 255 255 255 255 255 255 
255 255 255 255 255 255 255 255 255 
255 255 255 255 255 255 255 255 255 
255 255 255 255 255 255 255 255 255 
255 255 255 255 255 255 255 255 255 
255 255 255 255 255 255 255 255 255 
255 255 255 255 255 255 255 255 255 
255 255 255 255 255 255 255 255 255 
255 255 255 255 255 255 255 255 255 
255 255 255 255 255 255 255 255 255 
255 255 255 255 255 255 255 255 255 
255 255 255 255 255 255 255 255 255 
255 255 255 255 255 255 255 255 255 
255 255 255 255 255 255 255 255 255 
255 255 255 255 255 255 255 255 255 
255 255 255 255 255 255 255 255 255 
255 255 255 255 255 255 255 255 255 
255 255 255 255 255 255 255 255 255 
255 255 255 255 255 255 255 255 255 
255 255 255 255 255 255 255 255 255 
255 255 255 255 255 255 255 255 255 
255 255 255 255 255 255 255 255 255 
255 255 255 255 255 255 255 255 255 
255 255 255 255 255 255 255 255 255 
255 255 255 255 255 255 255 255 255 
255 255 255 255 255 255 255 255 255 
255 255 255 255 255 255 255 255 255 
255 255 255 255 255 255 255 255 255 
255 255 255 255 255 255 255 255 255 
255 255 255 255 255 255 255 255 255 
255 255 255 255 255 255 255 255 255 
255 255 255 255 255 255 255 255 255 
255 255 255 255 255 255 255 255 255 
255 255 255 255 255 255 255 255 255 
255 255 255 255 255 255 255 255 255 
255 255 255 255 255 255 255 255 255 
255 255 255 255 255 255 255 255 255 
255 255 255 255 255 255 255 255 255 
255 255 255 255 255 255 255 255 255 
255 255 255 255 255 255 255 255 255 
255 255 255 255 255 255 255 255 255 
255 255 255 255 255 255 255 255 255 
255 255 255 255 255 255 255 255 255 
255 255 255 255 255 255 255 255 255 
255 255 255 255 255 255 255 255 255 
255 255 255 255 255 255 255 255 255 
255 255 255 255 255 255 255 255 255 
255 255 255 255 255 255 255 255 255 
255 255 255 255 255 255 255 255 255 
255 255 255 255 255 255 255 255 255 
255 255 255 255 255 255 255 255 255 
255 255 255 255 255 255 255 255 255 
255 255 255 255 255 255 255 255 255 
255 255 255 255 255 255 255 255 255 
255 255 255 255 255 255 255 255 255 
255 255 255 255 255 255 255 255 255 
255 255 255 255 255 255 255 255 255 
255 255 255 255 255 255 255 255 255 
255 255 255 255 255 255 255 255 255 
255 255 255 255 255 255 255 255 255 
255 255 255 255 255 255 255 255 255 
255 255 255 255 255 255 255 255 255 
255 255 255 255 255 255 255 255 255 
255 255 255 255 255 255 255 255 255 
255 255 255 255 255 255 255 255 255 
255 255 255 255 255 255 255 255 255 
255 255 255 255 255 255 255 255 255 
255 255 255 255 255 255 255 255 255 
255 255 255 255 255 255 255 255 255 
255 255 255 255 255 255 255 255 255 
255 255 255 255 255 255 255 255 255 
255 255 255 255 255 255 255 255 255 
255 255 255 255 255 255 255 255 255 
255 255 255 255 255 255 255 255 255 
255 255 255 255 255 255 255 255 255 
255 255 255 255 255 255 255 255 255 
255 255 255 255 255 255 255 255 255 
255 255 255 255 255 255 255 255 255 
255 255 255 255 255 255 255 255 255 
255 255 255 255 255 255 255 255 255 
255 255 255 255 255 255 255 255 255 
255 255 255 255 255 255 255 255 255 
255 255 255 255 255 255 255 255 255 
255 255 255 255 255 255 255 255 255 
255 255 255 255 255 255 255 255 255 
255 255 255 255 255 255 255 255 255 
255 255 255 255 255 255 255 255 255 
255 255 255 255 255 255 255 255 255 
255 255 255 255 255 255 255 255 255 
255 255 255 255 255 255 255 255 255 
255 255 255 255 255 255 255 255 255 
255 255 255 255 255 255 255 255 255 
255 255 255 255 255 255 255 255 255 
255 255 255 255 255 255 255 255 255 
255 255 255 255 255 255 255 255 255 
255 255 255 255 255 255 255 255 255 
255 255 255 255 255 255 255 255 255 
255 255 255 255 255 255 255 255 255 
255 255 255 255 255 255 255 255 255 
255 255 255 255 255 255 255 255 255 
255 255 255 255 255 255 255 255 255 
255 255 255 255 255 255 255 255 255 
255 255 255 255 255 255 255 255 255 
255 255 255 255 255 255 255 255 255 
255 255 255 255 255 255 255 255 255 
255 255 255 255 255 255 255 255 255 
255 255 255 255 255 255 255 255 255 
255 255 255 255 255 255 255 255 255 
255 255 255 255 255 255 255 255 255 
255 255 255 255 255 255 255 255 255 
255 255 255 255 255 255 255 255 255 
255 255 255 255 255 255 255 255 255 
255 255 255 255 255 255 255 255 255 
255 255 255 255 255 255 255 255 255 
255 255 255 255 255 255 255 255 255 
255 255 255 255 255 255 255 255 255 
255 255 255 255 255 255 255 255 255 
255 255 255 255 255 255 255 255 255 
255 255 255 255 255 255 255 255 255 
255 255 255 255 255 255 255 255 255 
255 255 255 255 255 255 255 255 255 
255 255 255 255 255 255 255 255 255 
255 255 255 255 255 255 255 255 255 
255 255 255 255 255 255 255 255 255 
255 255 255 255 255 255 255 255 255 
255 255 255 255 255 255 255 255 255 
255 255 255 255 255 255 255 255 255 
255 255 255 255 255 255 255 255 255 
255 255 255 255 255 255 255 255 255 
255 255 255 255 255 255 255 255 255 
255 255 255 255 255 255 255 255 255 
255 255 255 255 255 255 255 255 255 
255 255 255 255 255 255 255 255 255 
255 255 255 255 255 255 255 255 255 
255 255 255 255 255 255 255 255 255 
255 255 255 255 255 255 255 255 255 
255 255 255 255 255 255 255 255 255 
255 255 255 255 255 255 255 255 255 
255 255 255 255 255 255 255 255 255 
255 255 255 255 255 255 255 255 255 
255 255 255 255 255 255 255 255 255 
255 255 255 255 255 255 255 255 255 
255 255 255 255 255 255 255 255 255 
255 255 255 255 255 255 255 255 255 
255 255 255 255 255 255 255 255 255 
255 255 255 255 255 255 255 255 255 
255 255 255 255 255 255 255 255 255 
255 255 255 255 255 255 255 255 255 
255 255 255 255 255 255 255 255 255 
255 255 255 255 255 255 255 255 255 
255 255 255 255 255 255 255 255 255 
255 255 255 255 255 255 255 255 255 
255 255 255 255 255 255 255 255 255 
255 255 255 255 255 255 255 255 255 
255 255 255 255 255 255 255 255 255 
255 255 255 255 255 255 255 255 255 
255 255 255 255 255 255 255 255 255 
255 255 255 255 255 255 255 255 255 
255 255 255 255 255 255 255 255 255 
255 255 255 255 255 255 255 255 255 
255 255 255 255 255 255 255 255 255 
255 255 255 255 255 255 255 255 255 
255 255 255 255 255 255 255 255 255 
255 255 255 255 255 255 255 255 255 
255 255 255 255 255 255 255 255 255 
255 255 255 255 255 255 255 255 255 
255 255 255 255 255 255 255 255 255 
255 255 255 255 255 255 255 255 255 
255 255 255 255 255 255 255 255 255 
255 255 255 255 255 255 255 255 255 
255 255 255 255 255 255 255 255 255 
255 255 255 255 255 255 255 255 255 
255 255 255 255 255 255 255 255 255 
255 255 255 255 255 255 255 255 255 
255 255 255 255 255 255 255 255 255 
255 255 255 255 255 255 255 255 255 
255 255 255 255 255 255 255 255 255 
255 255 255 255 255 255 255 255 255 
255 255 255 255 255 255 255 255 255 
255 255 255 255 255 255 255 255 255 
255 255 255 255 255 255 255 255 255 
255 255 255 255 255 255 255 255 255 
255 255 255 255 255 255 255 255 255 
255 255 255 255 255 255 255 255 255 
255 255 255 255 255 255 255 255 255 
255 255 255 255 255 255 255 255 255 
255 255 255 255 255 255 255 255 255 
255 255 255 255 255 255 255 255 255 
255 255 255 255 255 255 255 255 255 
255 255 255 255 255 255 255 255 255 
255 255 255 255 255 255 255 255 255 
255 255 255 255 255 255 255 255 255 
255 255 255 255 255 255 255 255 255 
255 255 255 255 255 255 255 255 255 
255 255 255 255 255 255 255 255 255 
255 255 255 255 255 255 255 255 255 
255 255 255 255 255 255 255 255 255 
255 255 255 255 255 255 255 255 255 
255 255 255 255 255 255 255 255 255 
255 255 255 255 255 255 255 255 255 
255 255 255 255 255 255 255 255 255 
255 255 255 255 255 255 255 255 255 
255 255 255 255 255 255 255 255 255 
255 255 255 255 255 255 255 255 255 
255 255 255 255 255 255 255 255 255 
255 255 255 255 255 255 255 255 255 
255 255 255 255 255 255 255 255 255 
255 255 255 255 255 255 255 255 255 
255 255 255 255 255 255 255 255 255 
255 255 255 255 255 255 255 255 255 
255 255 255 255 255 255 255 255 255 
255 255 255 255 255 255 255 255 255 
255 255 255 255 255 255 255 255 255 
255 255 255 255 255 255 255 255 255 
255 255 255 255 255 255 255 255 255 
255 255 255 255 255 255 255 255 255 
255 255 255 255 255 255 255 255 255 
255 255 255 255 255 255 255 255 255 
255 255 255 255 255 255 255 255 255 
255 255 255 255 255 255 255 255 255 
255 255 255 255 255 255 255 255 255 
255 255 255 255 255 255 255 255 255 
255 255 255 255 255 255 255 255 255 
255 255 255 255 255 255 255 255 255 
255 255 255 255 255 255 255 255 255 
255 255 255 255 255 255 255 255 255 
255 255 255 255 255 255 255 255 255 
255 255 255 255 255 255 255 255 255 
255 255 255 255 255 255 255 255 255 
255 255 255 255 255 255 255 255 255 
255 255 255 255 255 255 255 255 255 
255 255 255 255 255 255 255 255 255 
255 255 255 255 255 255 255 255 255 
255 255 255 255 255 255 255 255 255 
255 255 255 255 255 255 255 255 255 
255 255 255 255 255 255 255 255 255 
255 255 255 255 255 255 255 255 255 
255 255 255 255 255 255 255 255 255 
255 255 255 255 255 255 255 255 255 
255 255 255 255 255 255 255 255 255 
255 255 255 255 255 255 255 255 255 
255 255 255 255 255 255 255 255 255 
255 255 255 255 255 255 255 255 255 
255 255 255 255 255 255 255 255 255 
255 255 255 255 255 255 255 255 255 
255 255 255 255 255 255 255 255 255 
255 255 255 255 255 255 255 255 255 
255 255 255 255 255 255 255 255 255 
255 255 255 255 255 255 255 255 255 
255 255 255 255 255 255 255 255 255 
255 255 255 255 255 255 255 255 255 
255 255 255 255 255 255 255 255 255 
255 255 255 255 255 255 255 255 255 
255 255 255 255 255 255 255 255 255 
255 255 255 255 255 255 255 255 255 
255 255 255 255 255 255 255 255 255 
255 255 255 255 255 255 255 255 255 
255 255 255 255 255 255 255 255 255 
255 255 255 255 255 255 255 255 255 
255 255 255 255 255 255 255 255 255 
255 255 255 255 255 255 255 255 255 
255 255 255 255 255 255 255 255 255 
255 255 255 255 255 255 255 255 255 
255 255 255 255 255 255 255 255 255 
255 255 255 255 255 255 255 255 255 
255 255 255 255 255 255 255 255 255 
255 255 255 255 255 255 255 255 255 
255 255 255 255 255 255 255 255 255 
255 255 255 255 255 255 255 255 255 
255 255 255 255 255 255 255 255 255 
255 255 255 255 255 255 255 255 255 
255 255 255 255 255 255 255 255 255 
255 255 255 255 255 255 255 255 255 
255 255 255 255 255 255 255 255 255 
255 255 255 255 255 255 255 255 255 
255 255 255 255 255 255 255 255 255 
255 255 255 255 255 255 255 255 255 
255 255 255 255 255 255 255 255 255 
255 255 255 255 255 255 255 255 255 
255 255 255 255 255 255 255 255 255 
255 255 255 255 255 255 255 255 255 
255 255 255 255 255 255 255 255 255 
255 255 255 255 255 255 255 255 255 
255 255 255 255 255 255 255 255 255 
255 255 255 255 255 255 255 255 255 
255 255 255 255 255 255 255 255 255 
255 255 255 255 255 255 255 255 255 
255 255 255 255 255 255 255 255 255 
255 255 255 255 255 255 255 255 255 
255 255 255 255 255 255 255 255 255 
255 255 255 255 255 255 255 255 255 
255 255 255 255 255 255 255 255 255 
255 255 255 255 255 255 255 255 255 
255 255 255 255 255 255 255 255 255 
255 255 255 255 255 255 255 255 255 
255 255 255 255 255 255 255 255 255 
255 255 255 255 255 255 255 255 255 
255 255 255 255 255 255 255 255 255 
255 255 255 255 255 255 255 255 255 
255 255 255 255 255 255 255 255 255 
255 255 255 255 255 255 255 255 255 
255 255 255 255 255 255 255 255 255 
255 255 255 255 255 255 255 255 255 
255 255 255 255 255 255 255 255 255 
255 255 255 255 255 255 255 255 255 
255 255 255 255 255 255 255 255 255 
255 255 255 255 255 255 255 255 255 
255 255 255 255 255 255 255 255 255 
255 255 255 255 255 255 255 255 255 
255 255 255 255 255 255 255 255 255 
255 255 255 255 255 255 255 255 255 
255 255 255 255 255 255 255 255 255 
255 255 255 255 255 255 255 255 255 
255 255 255 255 255 255 255 255 255 
255 255 255 255 255 255 255 255 255 
255 255 255 255 255 255 255 255 255 
255 255 255 255 255 255 255 255 255 
255 255 255 255 255 255 255 255 255 
255 255 255 255 255 255 255 255 255 
255 255 255 255 255 255 255 255 255 
255 255 255 255 255 255 255 255 255 
255 255 255 255 255 255 255 255 255 
255 255 255 255 255 255 255 255 255 
255 255 255 255 255 255 255 255 255 
255 255 255 255 255 255 255 255 255 
255 255 255 255 255 255 255 255 255 
255 255 255 255 255 255 255 255 255 
255 255 255 255 255 255 255 255 255 
255 255 255 255 255 255 255 255 255 
255 255 255 255 255 255 255 255 255 
255 255 255 255 255 255 255 255 255 
255 255 255 255 255 255 255 255 255 
255 255 255 255 255 255 255 255 255 
255 255 255 255 255 255 255 255 255 
255 255 255 255 255 255 255 255 255 
255 255 255 255 255 255 255 255 255 
255 255 255 255 255 255 255 255 255 
255 255 255 255 255 255 255 255 255 
255 255 255 255 255 255 255 255 255 
255 255 255 255 255 255 255 255 255 
255 255 255 255 255 255 255 255 255 
255 255 255 255 255 255 255 255 255 
255 255 255 255 255 255 255 255 255 
255 255 255 255 255 255 255 255 255 
255 255 255 255 255 255 255 255 255 
255 255 255 255 255 255 255 255 255 
255 255 255 255 255 255 255 255 255 
255 255 255 255 255 255 255 255 255 
255 255 255 255 255 255 255 255 255 
255 255 255 255 255 255 255 255 255 
255 255 255 255 255 255 255 255 255 
255 255 255 255 255 255 255 255 255 
255 255 255 255 255 255 255 255 255 
255 255 255 255 255 255 255 255 255 
255 255 255 255 255 255 255 255 255 
255 255 255 255 255 255 255 255 255 
255 255 255 255 255 255 255 255 255 
255 255 255 255 255 255 255 255 255 
255 255 255 255 255 255 255 255 255 
255 255 255 255 255 255 255 255 255 
255 255 255 255 255 255 255 255 255 
255 255 255 255 255 255 255 255 255 
255 255 255 255 255 255 255 255 255 
255 255 255 255 255 255 255 255 255 
255 255 255 255 255 255 255 255 255 
255 255 255 255 255 255 255 255 255 
255 255 255 255 255 255 255 255 255 
255 255 255 255 255 255 255 255 255 
255 255 255 255 255 255 255 255 255 
255 255 255 255 255 255 255 255 255 
255 255 255 255 255 255 255 255 255 
255 255 255 255 255 255 255 255 255 
255 255 255 255 255 255 255 255 255 
255 255 255 255 255 255 255 255 255 
255 255 255 255 255 255 255 255 255 
255 255 255 255 255 255 255 255 255 
255 255 255 255 255 255 255 255 255 
255 255 255 255 255 255 255 255 255 
255 255 255 255 255 255 255 255 255 
255 255 255 255 255 255 255 255 255 
255 255 255 255 255 255 255 255 255 
255 255 255 255 255 255 255 255 255 
255 255 255 255 255 255 255 255 255 
255 255 255 255 255 255 255 255 255 
255 255 255 255 255 255 255 255 255 
255 255 255 255 255 255 255 255 255 
255 255 255 255 255 255 255 255 255 
255 255 255 255 255 255 255 255 255 
255 255 255 255 255 255 255 255 255 
255 255 255 255 255 255 255 255 255 
255 255 255 255 255 255 255 255 255 
255 255 255 255 255 255 255 255 255 
255 255 255 255 255 255 255 255 255 
255 255 255 255 255 255 255 255 255 
255 255 255 255 255 255 255 255 255 
255 255 255 255 255 255 255 255 255 
255 255 255 255 255 255 255 255 255 
255 255 255 255 255 255 255 255 255 
255 255 255 255 255 255 255 255 255 
255 255 255 255 255 255 255 255 255 
255 255 255 255 255 255 255 255 255 
255 255 255 255 255 255 255 255 255 
255 255 255 255 255 255 255 255 255 
255 255 255 255 255 255 255 255 255 
255 255 255 255 255 255 255 255 255 
255 255 255 255 255 255 255 255 255 
255 255 255 255 255 255 255 255 255 
255 255 255 255 255 255 255 255 255 
255 255 255 255 255 255 255 255 255 
255 255 255 255 255 255 255 255 255 
255 255 255 255 255 255 255 255 255 
255 255 255 255 255 255 255 255 255 
255 255 255 255 255 255 255 255 255 
255 255 255 255 255 255 255 255 255 
255 255 255 255 255 255 255 255 255 
255 255 255 255 255 255 255 255 255 
255 255 255 255 255 255 255 255 255 
255 255 255 255 255 255 255 255 255 
255 255 255 255 255 255 255 255 255 
255 255 255 255 255 255 255 255 255 
255 255 255 255 255 255 255 255 255 
255 255 255 255 255 255 255 255 255 
255 255 255 255 255 255 255 255 255 
255 255 255 255 255 255 255 255 255 
255 255 255 255 255 255 255 255 255 
255 255 255 255 255 255 255 255 255 
255 255 255 255 255 255 255 255 255 
255 255 255 255 255 255 255 255 255 
255 255 255 255 255 255 255 255 255 